
     Program PWSCF v.7.2 starts on 22Oct2024 at 19:21:48 

     This program is part of the open-source Quantum ESPRESSO suite
     for quantum simulation of materials; please cite
         "P. Giannozzi et al., J. Phys.:Condens. Matter 21 395502 (2009);
         "P. Giannozzi et al., J. Phys.:Condens. Matter 29 465901 (2017);
         "P. Giannozzi et al., J. Chem. Phys. 152 154105 (2020);
          URL http://www.quantum-espresso.org", 
     in publications or presentations arising from this work. More details at
     http://www.quantum-espresso.org/quote

     Parallel version (MPI), running on   108 processors

     MPI processes distributed on     1 nodes
     493606 MiB available memory on the printing compute node when the environment starts
 
     Waiting for input...
     Reading input from standard input
Warning: card &CELL ignored
Warning: card / ignored
Warning: card &FCP ignored
Warning: card / ignored
Warning: card &RISM ignored
Warning: card / ignored

     Current dimensions of program PWSCF are:
     Max number of different atomic species (ntypx) = 10
     Max number of k-points (npk) =  40000
     Max angular momentum in pseudopotentials (lmaxx) =  4
     Message from routine setup:
     no reason to have ecutrho>4*ecutwfc
     Found identity + ( -0.5000  0.0000  0.0000) symmetry
     This is a supercell, fractional translations are disabled
     Message from routine setup:
     using ibrav=0 with symmetry is DISCOURAGED, use correct ibrav instead
 
     K-points division:     npool     =       3
     R & G space division:  proc/nbgrp/npool/nimage =      36
     wavefunctions fft division:  Y-proc x Z-proc =       6      6
     wavefunctions fft division:  task group distribution
                                  #TG    x Z-proc =       6      6
     Subspace diagonalization in iterative solution of the eigenvalue problem:
     one sub-group per band group will be used
     scalapack distributed-memory algorithm (size of sub-group:  2*  2 procs)

     Message from routine divide_et_impera:
     suboptimal parallelization: some nodes have no k-points
 
     Parallelization info
     --------------------
     sticks:   dense  smooth     PW     G-vecs:    dense   smooth      PW
     Min         108      52     14                21504     7528    1053
     Max         112      56     17                21631     7690    1100
     Sum        3949    1969    547               776071   274349   38791
 
     Using Pencil Decomposition
 


     bravais-lattice index     =            0
     lattice parameter (alat)  =      10.9304  a.u.
     unit-cell volume          =    4372.2210 (a.u.)^3
     number of atoms/cell      =            8
     number of atomic types    =            1
     number of electrons       =       152.00
     number of Kohn-Sham states=           91
     kinetic-energy cutoff     =      60.0000  Ry
     charge density cutoff     =     480.0000  Ry
     scf convergence threshold =      1.0E-06
     mixing beta               =       0.7000
     number of iterations used =            8  plain     mixing
     Exchange-correlation= PBE
                           (   1   4   3   4   0   0   0)

     celldm(1)=  10.930428  celldm(2)=   0.000000  celldm(3)=   0.000000
     celldm(4)=   0.000000  celldm(5)=   0.000000  celldm(6)=   0.000000

     crystal axes: (cart. coord. in units of alat)
               a(1) = (   1.000000   0.000000   0.000000 )  
               a(2) = (   0.500000   0.866025   0.000000 )  
               a(3) = (   0.000000   0.000000   3.865983 )  

     reciprocal axes: (cart. coord. in units 2 pi/alat)
               b(1) = (  1.000000 -0.577350  0.000000 )  
               b(2) = (  0.000000  1.154701  0.000000 )  
               b(3) = (  0.000000  0.000000  0.258666 )  


     PseudoPot. # 1 for Ag read from file:
     /home/b/b38622/research/qe/pseudo/Ag_ONCV_PBE-1.0.oncvpsp.upf
     MD5 check sum: 94f47bd0669c641108e45594df92fabc
     Pseudo is Norm-conserving, Zval = 19.0
     Generated using ONCVPSP code by D. R. Hamann
     Using radial grid of 1398 points,  6 beta functions with: 
                l(1) =   0
                l(2) =   0
                l(3) =   1
                l(4) =   1
                l(5) =   2
                l(6) =   2

     atomic species   valence    mass     pseudopotential
        Ag            19.00   107.86820     Ag( 1.00)

      6 Sym. Ops. (no inversion) found



   Cartesian axes

     site n.     atom                  positions (alat units)
         1           Ag  tau(   1) = (   0.0000000   0.2886751   1.7288674  )
         2           Ag  tau(   2) = (   0.5000000   0.2886751   1.7288674  )
         3           Ag  tau(   3) = (   0.2500000   0.7216878   1.7288674  )
         4           Ag  tau(   4) = (   0.7500000   0.7216878   1.7288674  )
         5           Ag  tau(   5) = (   0.0000000   0.0000000   2.1371157  )
         6           Ag  tau(   6) = (   0.5000000   0.0000000   2.1371157  )
         7           Ag  tau(   7) = (   0.2500000   0.4330127   2.1371157  )
         8           Ag  tau(   8) = (   0.7500000   0.4330127   2.1371157  )

     number of k points=     1  Methfessel-Paxton smearing, width (Ry)=  0.0600
                       cart. coord. in units 2pi/alat
        k(    1) = (   0.0000000   0.0000000   0.0000000), wk =   2.0000000

     Dense  grid:   776071 G-vectors     FFT dimensions: (  80,  80, 300)

     Smooth grid:   274349 G-vectors     FFT dimensions: (  54,  54, 216)

     Estimated max dynamical RAM per process >      23.78 MB

     Estimated total dynamical RAM >       2.14 GB

     Initial potential from superposition of free atoms

     starting charge     151.9977, renormalised to     152.0000

     negative rho (up, down):  2.538E-06 0.000E+00
     Starting wfcs are   80 randomized atomic wfcs +   11 random wfcs

     total cpu time spent up to now is        1.0 secs

     per-process dynamical memory:   136.5 Mb

     Self-consistent Calculation

     iteration #  1     ecut=    60.00 Ry     beta= 0.70
     Davidson diagonalization with overlap
     ethr =  1.00E-02,  avg # of iterations =  5.0

     Threshold (ethr) on eigenvalues was too large:
     Diagonalizing with lowered threshold

     Davidson diagonalization with overlap
     ethr =  4.39E-04,  avg # of iterations =  1.0

     total cpu time spent up to now is        1.7 secs

     total energy              =   -2297.42542755 Ry
     estimated scf accuracy    <       0.65286557 Ry

     iteration #  2     ecut=    60.00 Ry     beta= 0.70
     Davidson diagonalization with overlap
     ethr =  4.30E-04,  avg # of iterations =  7.0

     negative rho (up, down):  9.261E-05 0.000E+00

     total cpu time spent up to now is        2.3 secs

     total energy              =   -2297.46594084 Ry
     estimated scf accuracy    <       1.27522141 Ry

     iteration #  3     ecut=    60.00 Ry     beta= 0.70
     Davidson diagonalization with overlap
     ethr =  4.30E-04,  avg # of iterations =  2.0

     negative rho (up, down):  6.524E-05 0.000E+00

     total cpu time spent up to now is        2.7 secs

     total energy              =   -2297.71470526 Ry
     estimated scf accuracy    <       0.07147783 Ry

     iteration #  4     ecut=    60.00 Ry     beta= 0.70
     Davidson diagonalization with overlap
     ethr =  4.70E-05,  avg # of iterations =  2.0

     negative rho (up, down):  1.327E-05 0.000E+00

     total cpu time spent up to now is        3.0 secs

     total energy              =   -2297.72883246 Ry
     estimated scf accuracy    <       0.00169797 Ry

     iteration #  5     ecut=    60.00 Ry     beta= 0.70
     Davidson diagonalization with overlap
     ethr =  1.12E-06,  avg # of iterations =  3.0

     negative rho (up, down):  7.000E-06 0.000E+00

     total cpu time spent up to now is        3.5 secs

     total energy              =   -2297.72912153 Ry
     estimated scf accuracy    <       0.00010839 Ry

     iteration #  6     ecut=    60.00 Ry     beta= 0.70
     Davidson diagonalization with overlap
     ethr =  7.13E-08,  avg # of iterations =  3.0

     negative rho (up, down):  4.003E-06 0.000E+00

     total cpu time spent up to now is        3.9 secs

     total energy              =   -2297.72903035 Ry
     estimated scf accuracy    <       0.00201283 Ry

     iteration #  7     ecut=    60.00 Ry     beta= 0.70
     Davidson diagonalization with overlap
     ethr =  7.13E-08,  avg # of iterations =  2.0

     total cpu time spent up to now is        4.2 secs

     total energy              =   -2297.72917309 Ry
     estimated scf accuracy    <       0.00000292 Ry

     iteration #  8     ecut=    60.00 Ry     beta= 0.70
     Davidson diagonalization with overlap
     ethr =  1.92E-09,  avg # of iterations =  2.0

     total cpu time spent up to now is        4.6 secs

     End of self-consistent calculation

          k = 0.0000 0.0000 0.0000 ( 34359 PWs)   bands (ev):

   -92.1692 -92.1607 -92.1550 -92.1550 -92.1550 -92.1522 -92.1520 -92.1520
   -55.7378 -55.7378 -55.7378 -55.7268 -55.7268 -55.7267 -55.6472 -55.6472
   -55.6472 -55.6282 -55.6282 -55.6282 -55.6125 -55.6125 -55.6005 -55.6002
   -55.6002 -55.5559 -55.5558 -55.5558 -55.5296 -55.5295 -55.5295 -55.5189
    -7.0894  -6.4403  -6.3482  -6.3482  -6.3481  -6.1601  -6.1601  -6.1601
    -5.8800  -5.8800  -5.8800  -5.0959  -5.0959  -5.0959  -4.9364  -4.9364
    -4.9080  -4.8509  -4.8509  -4.4870  -4.4870  -4.4869  -3.8986  -3.8986
    -3.8364  -3.8364  -3.8364  -3.5326  -3.5325  -3.5325  -3.5213  -3.5213
    -3.5212  -3.4190  -3.4190  -3.1939  -3.1939  -3.1939  -3.1215  -3.1215
    -3.1214  -2.3002   0.3224   0.3224   0.3224   0.3809   1.2188   1.2188
     1.2188   4.2181   4.2181   4.2181   4.3371   4.6170   4.6170   4.6170
     4.7230   5.4931   5.8258

     the Fermi energy is     0.3586 ev

!    total energy              =   -2297.72917337 Ry
     estimated scf accuracy    <       0.00000020 Ry
     smearing contrib. (-TS)   =      -0.04693816 Ry
     internal energy E=F+TS    =   -2297.68223522 Ry

     The total energy is F=E-TS. E is the sum of the following terms:
     one-electron contribution =  -13813.43154585 Ry
     hartree contribution      =    6881.85319807 Ry
     xc contribution           =    -216.78066410 Ry
     ewald contribution        =    4850.67677666 Ry

     convergence has been achieved in   8 iterations

     Forces acting on atoms (cartesian axes, Ry/au):

     atom    1 type  1   force =     0.00000000    0.00000007   -0.00942697
     atom    2 type  1   force =     0.00000000   -0.00000000   -0.00943444
     atom    3 type  1   force =    -0.00000006   -0.00000004   -0.00942697
     atom    4 type  1   force =     0.00000006   -0.00000004   -0.00942697
     atom    5 type  1   force =     0.00000000    0.00000000    0.00942429
     atom    6 type  1   force =     0.00000000   -0.00001276    0.00943035
     atom    7 type  1   force =    -0.00001105    0.00000638    0.00943035
     atom    8 type  1   force =     0.00001105    0.00000638    0.00943035
     The non-local contrib.  to forces
     atom    1 type  1   force =     0.00000000    0.00000079   -0.04570199
     atom    2 type  1   force =     0.00000000    0.00000000   -0.04570823
     atom    3 type  1   force =    -0.00000069   -0.00000040   -0.04570199
     atom    4 type  1   force =     0.00000069   -0.00000040   -0.04570199
     atom    5 type  1   force =     0.00000000    0.00000000    0.04588093
     atom    6 type  1   force =     0.00000000    0.00001396    0.04588335
     atom    7 type  1   force =     0.00001209   -0.00000698    0.04588335
     atom    8 type  1   force =    -0.00001209   -0.00000698    0.04588335
     The ionic contribution  to forces
     atom    1 type  1   force =     0.00000000   -0.00000000 -136.96272511
     atom    2 type  1   force =    -0.00000000    0.00000000 -136.96272511
     atom    3 type  1   force =     0.00000000   -0.00000000 -136.96272511
     atom    4 type  1   force =    -0.00000000    0.00000000 -136.96272511
     atom    5 type  1   force =     0.00000000   -0.00000000  136.96272511
     atom    6 type  1   force =    -0.00000000    0.00000000  136.96272511
     atom    7 type  1   force =     0.00000000   -0.00000000  136.96272511
     atom    8 type  1   force =    -0.00000000    0.00000000  136.96272511
     The local contribution  to forces
     atom    1 type  1   force =     0.00000000    0.00003748  137.00041988
     atom    2 type  1   force =    -0.00000002   -0.00000000  137.00054734
     atom    3 type  1   force =    -0.00003245   -0.00001874  137.00041988
     atom    4 type  1   force =     0.00003245   -0.00001874  137.00041988
     atom    5 type  1   force =     0.00000000    0.00000000 -136.99795254
     atom    6 type  1   force =    -0.00000002    0.00020496 -136.99807121
     atom    7 type  1   force =     0.00017751   -0.00010248 -136.99807121
     atom    8 type  1   force =    -0.00017751   -0.00010248 -136.99807121
     The core correction contribution to forces
     atom    1 type  1   force =     0.00000000    0.00000000    0.00000000
     atom    2 type  1   force =     0.00000000    0.00000000    0.00000000
     atom    3 type  1   force =     0.00000000    0.00000000    0.00000000
     atom    4 type  1   force =     0.00000000    0.00000000    0.00000000
     atom    5 type  1   force =     0.00000000    0.00000000    0.00000000
     atom    6 type  1   force =     0.00000000    0.00000000    0.00000000
     atom    7 type  1   force =     0.00000000    0.00000000    0.00000000
     atom    8 type  1   force =     0.00000000    0.00000000    0.00000000
     The Hubbard contrib.    to forces
     atom    1 type  1   force =     0.00000000    0.00000000    0.00000000
     atom    2 type  1   force =     0.00000000    0.00000000    0.00000000
     atom    3 type  1   force =     0.00000000    0.00000000    0.00000000
     atom    4 type  1   force =     0.00000000    0.00000000    0.00000000
     atom    5 type  1   force =     0.00000000    0.00000000    0.00000000
     atom    6 type  1   force =     0.00000000    0.00000000    0.00000000
     atom    7 type  1   force =     0.00000000    0.00000000    0.00000000
     atom    8 type  1   force =     0.00000000    0.00000000    0.00000000
     The SCF correction term to forces
     atom    1 type  1   force =    -0.00000000   -0.00003819   -0.00151131
     atom    2 type  1   force =     0.00000000   -0.00000000   -0.00164000
     atom    3 type  1   force =     0.00003308    0.00001910   -0.00151131
     atom    4 type  1   force =    -0.00003308    0.00001910   -0.00151131
     atom    5 type  1   force =    -0.00000000    0.00000000   -0.00132077
     atom    6 type  1   force =     0.00000000   -0.00023169   -0.00119846
     atom    7 type  1   force =    -0.00020065    0.00011584   -0.00119846
     atom    8 type  1   force =     0.00020065    0.00011584   -0.00119846

     Total force =     0.026669     Total SCF correction =     0.003970
     SCF correction compared to forces is large: reduce conv_thr to get better values


     Computing stress (Cartesian axis) and pressure

          total   stress  (Ry/bohr**3)                   (kbar)     P=       21.78
   0.00020354   0.00000000   0.00000000           29.94        0.00        0.00
   0.00000000   0.00020354   0.00000000            0.00       29.94        0.00
   0.00000000   0.00000000   0.00003710            0.00        0.00        5.46


     Writing all to output data dir ./pwscf.save/
 
     init_run     :      0.68s CPU      0.82s WALL (       1 calls)
     electrons    :      3.29s CPU      3.68s WALL (       1 calls)
     forces       :      0.09s CPU      0.10s WALL (       1 calls)
     stress       :      0.42s CPU      0.46s WALL (       1 calls)

     Called by init_run:
     wfcinit      :      0.11s CPU      0.13s WALL (       1 calls)
     potinit      :      0.19s CPU      0.28s WALL (       1 calls)
     hinit0       :      0.05s CPU      0.06s WALL (       1 calls)

     Called by electrons:
     c_bands      :      2.40s CPU      2.62s WALL (       9 calls)
     sum_band     :      0.43s CPU      0.48s WALL (       9 calls)
     v_of_rho     :      0.36s CPU      0.41s WALL (       9 calls)
     mix_rho      :      0.04s CPU      0.04s WALL (       9 calls)

     Called by c_bands:
     init_us_2    :      0.01s CPU      0.01s WALL (      19 calls)
     init_us_2:cp :      0.01s CPU      0.01s WALL (      19 calls)
     cegterg      :      2.31s CPU      2.53s WALL (       9 calls)

     Called by *egterg:
     cdiaghg      :      0.28s CPU      0.31s WALL (      35 calls)
     h_psi        :      1.61s CPU      1.81s WALL (      37 calls)
     g_psi        :      0.00s CPU      0.00s WALL (      27 calls)

     Called by h_psi:
     h_psi:calbec :      0.11s CPU      0.12s WALL (      37 calls)
     vloc_psi     :      1.45s CPU      1.64s WALL (      37 calls)
     vloc_psi:tg_ :      0.10s CPU      0.10s WALL (      37 calls)
     add_vuspsi   :      0.05s CPU      0.05s WALL (      37 calls)

     General routines
     calbec       :      0.13s CPU      0.14s WALL (      42 calls)
     fft          :      0.33s CPU      0.38s WALL (     114 calls)
     ffts         :      0.11s CPU      0.19s WALL (      18 calls)
     fftw         :      1.54s CPU      1.74s WALL (     906 calls)
     interpolate  :      0.12s CPU      0.20s WALL (       9 calls)
 
     Parallel routines
     fft_scatt_xy :      0.40s CPU      0.46s WALL (    1038 calls)
     fft_scatt_yz :      0.88s CPU      1.01s WALL (    1038 calls)
     fft_scatt_tg :      0.19s CPU      0.23s WALL (     906 calls)
 
     PWSCF        :      4.67s CPU      5.42s WALL

 
   This run was terminated on:  19:21:54  22Oct2024            

=------------------------------------------------------------------------------=
   JOB DONE.
=------------------------------------------------------------------------------=
